<?xml version="1.0" encoding="UTF-8"?>

<!-- generated on fre 27 apr 2018 18:50:50 by SUMO gui Version 0.26.0
<?xml version="1.0" encoding="UTF-8"?>

<configuration xmlns:xsi="http://www.w3.org/2001/XMLSchema-instance" xsi:noNamespaceSchemaLocation="http://sumo.dlr.de/xsd/sumo-gui.exeConfiguration.xsd">

    <input>
        <net-file value="the_merging_highway_no_platoon.net.xml"/>
        <route-files value="merging_highway_no_platoon.rou.xml"/>
        <additional-files value="merging_highway_no_platoon.add.xml"/>
    </input>

    <time>
        <begin value="0"/>
        <end value="86400"/>
        <step-length value="0.01"/>
    </time>

    <random_number>
        <seed value="123"/>
    </random_number>

    <gui_only>
        <start value="false"/>
    </gui_only>

</configuration>
-->

<meandata xmlns:xsi="http://www.w3.org/2001/XMLSchema-instance" xsi:noNamespaceSchemaLocation="http://sumo.dlr.de/xsd/meandata_file.xsd">
    <interval begin="0.00" end="86400.00" id="no_platoon_edge">
        <edge id="gneE0" sampledSeconds="567657.77" traveltime="64.12" density="9.39" occupancy="1.88" waitingTime="193.54" speed="10.92" departed="8854" arrived="0" entered="0" left="8854" laneChangedFrom="3047" laneChangedTo="3047"/>
        <edge id="gneE1" sampledSeconds="242974.71" traveltime="30.38" density="4.59" occupancy="1.84" waitingTime="0.00" speed="20.15" departed="8000" arrived="0" entered="0" left="8000" laneChangedFrom="0" laneChangedTo="0"/>
        <edge id="gneE2" sampledSeconds="287440.14" traveltime="16.70" density="17.51" occupancy="2.33" waitingTime="1944.67" speed="11.38" departed="0" arrived="0" entered="16854" left="16854" laneChangedFrom="8863" laneChangedTo="8863"/>
        <edge id="gneE3" sampledSeconds="2177964.30" traveltime="129.22" density="7.62" occupancy="1.52" waitingTime="0.18" speed="25.62" departed="0" arrived="16854" entered="16854" left="0" laneChangedFrom="923" laneChangedTo="923"/>
    </interval>
</meandata>
