<?xml version="1.0" encoding="UTF-8"?>

<!-- generated on tis  1 maj 2018 18:04:30 by SUMO gui Version 0.29.0
<?xml version="1.0" encoding="UTF-8"?>

<configuration xmlns:xsi="http://www.w3.org/2001/XMLSchema-instance" xsi:noNamespaceSchemaLocation="http://sumo.dlr.de/xsd/sumo-gui.exeConfiguration.xsd">

    <input>
        <net-file value="./sumocfg/the_merging_highway_auto_platoon.net.xml"/>
        <route-files value="./sumocfg/merging_highway_auto_platoon.rou.xml"/>
        <additional-files value="./sumocfg/merging_highway_auto_platoon.add.xml"/>
    </input>

    <time>
        <begin value="0"/>
        <end value="8640"/>
        <step-length value="0.01"/>
    </time>

    <traci_server>
        <remote-port value="49954"/>
    </traci_server>

    <random_number>
        <seed value="0"/>
    </random_number>

    <gui_only>
        <start value="false"/>
    </gui_only>

</configuration>
-->

<meandata xmlns:xsi="http://www.w3.org/2001/XMLSchema-instance" xsi:noNamespaceSchemaLocation="http://sumo.dlr.de/xsd/meandata_file.xsd">
    <interval begin="0.00" end="56.01" id="no_platoon_edge">
        <edge id="gneE0" sampledSeconds="548.99" traveltime="25.14" overlapTraveltime="25.30" density="14.00" occupancy="2.80" waitingTime="0.00" speed="27.82" departed="30" arrived="0" entered="0" left="19" laneChangedFrom="0" laneChangedTo="0"/>
        <edge id="gneE1" sampledSeconds="206.44" traveltime="18.75" overlapTraveltime="18.88" density="6.02" occupancy="2.41" waitingTime="0.00" speed="32.63" departed="14" arrived="0" entered="0" left="9" laneChangedFrom="0" laneChangedTo="0"/>
        <edge id="gneE2" sampledSeconds="238.44" traveltime="9.59" overlapTraveltime="9.78" density="22.41" occupancy="2.99" waitingTime="2.82" speed="19.83" departed="0" arrived="0" entered="28" left="22" laneChangedFrom="11" laneChangedTo="11"/>
        <edge id="gneE3" sampledSeconds="262.35" traveltime="126.31" overlapTraveltime="126.46" density="1.42" occupancy="0.28" waitingTime="0.00" speed="26.21" departed="0" arrived="0" entered="21" left="0" laneChangedFrom="0" laneChangedTo="0"/>
    </interval>
</meandata>
